data_global
_amcsd_formula_title 'Bi2Fe4O9'
loop_
_publ_author_name
'Niizeki N'
'Wachi M'
_journal_name_full 'Zeitschrift fur Kristallographie'
_journal_volume 127 
_journal_year 1968
_journal_page_first 173
_journal_page_last 187
_publ_section_title
;
 The crystal structures of Bi2Mn4O10, Bi2Al4O9 and Bi2Fe4O9
;
_database_code_amcsd 0010664
_chemical_formula_sum 'Bi2 Fe4 O9'
_cell_length_a 7.905
_cell_length_b 8.428
_cell_length_c 6.005
_cell_angle_alpha 90
_cell_angle_beta 90
_cell_angle_gamma 90
_cell_volume 400.073
_exptl_crystal_density_diffrn      6.519
_symmetry_space_group_name_H-M 'P b a m'
loop_
_space_group_symop_operation_xyz
  'x,y,z'
  '1/2+x,1/2-y,z'
  '1/2-x,1/2+y,-z'
  '1/2-x,1/2+y,z'
  '1/2+x,1/2-y,-z'
  'x,y,-z'
  '-x,-y,z'
  '-x,-y,-z'
loop_
_atom_site_label
_atom_type_oxidation_number
_atom_site_fract_x
_atom_site_fract_y
_atom_site_fract_z
_atom_site_U_iso_or_equiv
Bi   3   0.17610   0.17150   0.00000   0.01418
Fe1  3   0.50000   0.00000   0.25700   0.01456
Fe2  3   0.35100   0.33400   0.50000   0.01583
O1  -2   0.00000   0.00000   0.50000   0.01900
O2  -2   0.37300   0.19800   0.24300   0.01267
O3  -2   0.13700   0.41800   0.50000   0.01520
O4  -2   0.14300   0.41500   0.00000   0.02026

